
   32  0.0000000e+00
   4.6159562   8.2463443   4.6758664   4.7115442   7.1682930   4.5463398
   3.7938052   6.7621356   4.9716562   5.5752534   6.9626027   5.1786357
   4.8515666   6.7420936   3.1790736   3.9212817   6.5305930   2.3448251
   6.1051178   6.6278398   2.8402972   6.7584544   6.8670654   3.5724327
   6.7102164   5.9429610   1.5922667   7.7945483   5.9808499   1.6966200
   6.4725214   4.4372541   1.5052778   7.0003247   3.9552370   2.3281887
   5.4503852   4.2014015   1.8014385   6.7413211   4.1057798   0.5022982
   6.3010263   6.6041219   0.2248602   7.1791673   7.0830685  -0.4545204
   5.0026059   6.5335625  -0.1778396   4.3583286   6.1021781   0.4693963
   4.5096231   7.1257919  -1.4696442   3.4559590   6.8502754  -1.4251134
   4.5946831   8.6321390  -1.3890035   5.6420052   8.9104074  -1.2715925
   4.2250776   8.9769518  -2.3547137   4.0316212   9.0767312  -0.5683910
   5.0554281   6.4535636  -2.7375945   5.2121371   7.1250015  -3.7841317
   5.4816300   5.1866543  -2.5765303   5.3313023   4.7917828  -1.6591507
   6.0410571   4.3873531  -3.6118850   5.5402517   4.5562819  -4.5651734
   7.0872056   4.6672869  -3.7356186   6.0403150   3.3445817  -3.2944998
